3
 energy: -5.070544191340 gnorm: 0.000279153171 xtb: 6.7.1 (edcfbbe)
O            0.00000006207532        0.01178596715832       -0.00000002057039
H            0.77274638535169        0.58010292019012       -0.00000370986080
H           -0.77274031085702        0.58011101263371        0.00000168490548
