3
Energy = -76.36349461030
O     0.0000000   -0.0177249    0.0000000 
H     0.7586762    0.5948624    0.0000000 
H    -0.7586762    0.5948624    0.0000000 
